Title="test"
Variables="Ite","Cl1","Cd1","Cl2","Cd2","Cl3","Cd3"
Zone I=5   F=point
0 1 0.1 12 23 31 34
1 2 0.2 11 25 32 36
2 3 0.3 10 27 34 38
3 4 0.4 13 29 35 33
4 5 0.5 14 20 36 37
