TITLE="Cpm"
VARIABLES=AOA,Cpm
Zone T="mach=8.0" I=3 F=point
4.0 -0.025028
6.0 -0.038774
8.0 -0.054204
Zone T="mach=12.0" I=3 F=point
4.0 -0.018748
6.0 -0.031372
8.0 -0.046066
Zone T="mach=10.0" I=3 F=point
4.0 -0.021206
6.0 -0.034222
8.0 -0.049142
Zone T="mach=4.0" I=3 F=point
4.0 -0.044368
6.0 -0.06328
8.0 -0.082984
Zone T="mach=6.0" I=3 F=point
4.0 -0.031564
6.0 -0.04705
8.0 -0.063678
