TITLE="cl"
VARIABLES=AOA,cl
Zone T="mach=8.0" I=3 F=point
4.0 0.03618
6.0 0.05922
8.0 0.08478
Zone T="mach=12.0" I=3 F=point
4.0 0.02725
6.0 0.04815
8.0 0.07233
Zone T="mach=10.0" I=3 F=point
4.0 0.03073
6.0 0.05243
8.0 0.07704
Zone T="mach=4.0" I=3 F=point
4.0 0.06364
6.0 0.09536
8.0 0.12805
Zone T="mach=6.0" I=3 F=point
4.0 0.0455
6.0 0.07145
8.0 0.09906
