TITLE="LD"
VARIABLES=AOA,LD
Zone T="mach=8.0" I=3 F=point
4.0 3.426136364
6.0 4.028571429
8.0 4.018009479
Zone T="mach=12.0" I=3 F=point
4.0 3.14665127
6.0 3.908279221
8.0 3.97199341
Zone T="mach=10.0" I=3 F=point
4.0 3.283119658
6.0 3.968962907
8.0 3.995850622
Zone T="mach=4.0" I=3 F=point
4.0 3.410503751
6.0 3.893834218
8.0 3.890914616
Zone T="mach=6.0" I=3 F=point
4.0 3.529868115
6.0 4.057353776
8.0 4.018661258
