TITLE="Ycp"
VARIABLES=AOA,Ycp
Zone T="mach=8.0" I=3 F=point
4.0 0.03683
6.0 0.06004
8.0 0.08689
Zone T="mach=12.0" I=3 F=point
4.0 0.02778
6.0 0.04917
8.0 0.07416
Zone T="mach=10.0" I=3 F=point
4.0 0.03131
6.0 0.05352
8.0 0.07897
Zone T="mach=4.0" I=3 F=point
4.0 0.06478
6.0 0.0974
8.0 0.013139
Zone T="mach=6.0" I=3 F=point
4.0 0.04629
6.0 0.0729
8.0 0.10153
