TITLE="Xcp"
VARIABLES=AOA,Xcp
Zone T="mach=8.0" I=3 F=point
4.0 0.00801
6.0 0.00843
8.0 0.00909
Zone T="mach=12.0" I=3 F=point
4.0 0.00674
6.0 0.00722
8.0 0.00796
Zone T="mach=10.0" I=3 F=point
4.0 0.00719
6.0 0.00766
8.0 0.00837
Zone T="mach=4.0" I=3 F=point
4.0 0.01418
6.0 0.01438
8.0 0.01477
Zone T="mach=6.0" I=3 F=point
4.0 0.00969
6.0 0.01004
8.0 0.01062
