TITLE="cd"
VARIABLES=AOA,cd
Zone T="mach=8.0" I=3 F=point
4.0 0.01056
6.0 0.0147
8.0 0.0211
Zone T="mach=12.0" I=3 F=point
4.0 0.00866
6.0 0.01232
8.0 0.01821
Zone T="mach=10.0" I=3 F=point
4.0 0.00936
6.0 0.01321
8.0 0.01928
Zone T="mach=4.0" I=3 F=point
4.0 0.01866
6.0 0.02449
8.0 0.03291
Zone T="mach=6.0" I=3 F=point
4.0 0.01289
6.0 0.01761
8.0 0.02465
